<?xml version="1.0" encoding="UTF-8"?>

<!-- generated on 2024-07-30 15:32:00 by Eclipse SUMO libsumo Version 1.19.0
<configuration xmlns:xsi="http://www.w3.org/2001/XMLSchema-instance" xsi:noNamespaceSchemaLocation="http://sumo.dlr.de/xsd/libsumoConfiguration.xsd">

    <input>
        <net-file value="simulation_test/area1_sampled_0.2/simulation/area1_connected.net.xml"/>
        <route-files value="simulation_test/area1_sampled_0.2/simulation/area1_sampled_0.2_taxis.rou.xml"/>
        <additional-files value="simulation_test/area1_sampled_0.2/simulation/area1_gcc_parkingareas_plain.add.xml"/>
    </input>

    <output>
        <emission-output value="simulation_test/area1_sampled_0.2/simulation/rl_output/emissions.xml"/>
        <tripinfo-output value="simulation_test/area1_sampled_0.2/simulation/rl_output/tripinfo.xml"/>
        <tripinfo-output.write-undeparted value="True"/>
    </output>

    <time>
        <begin value="0"/>
        <end value="3600"/>
    </time>

    <processing>
        <ignore-junction-blocker value="1"/>
    </processing>

    <report>
        <verbose value="True"/>
        <log value="nets/ridepooling/output/2024-07-30T15-31-59_area1_sampled_0.2/sumolog.txt"/>
        <message-log value="simulation_test/area1_sampled_0.2/simulation/message.xml"/>
        <error-log value="simulation_test/area1_sampled_0.2/simulation/error.xml"/>
        <duration-log.statistics value="True"/>
    </report>

    <taxi_device>
        <device.taxi.dispatch-algorithm value="traci"/>
        <device.taxi.dispatch-period value="1"/>
        <device.taxi.idle-algorithm value="stop"/>
    </taxi_device>

    <random_number>
        <seed value="4220"/>
    </random_number>

    <gui_only>
        <gui-settings-file value="simulation_test/area1_sampled_0.2/simulation/sumoview.xml"/>
    </gui_only>

</configuration>
-->

<tripinfos xmlns:xsi="http://www.w3.org/2001/XMLSchema-instance" xsi:noNamespaceSchemaLocation="http://sumo.dlr.de/xsd/tripinfo_file.xsd">
    <tripinfo id="rs_c001_i000_156_part0" depart="70.00" departLane="-32016029#2_0" departPos="5.10" departSpeed="2.86" departDelay="0.00" arrival="112.00" arrivalLane="-26341966#1_0" arrivalPos="0.20" arrivalSpeed="3.34" duration="42.00" routeLength="88.28" waitingTime="0.00" waitingCount="0" stopTime="0.00" timeLoss="11.30" rerouteNo="1" devices="tripinfo_rs_c001_i000_156_part0 routing_rs_c001_i000_156_part0 emissions_rs_c001_i000_156_part0" vType="DEFAULT_VEHTYPE" speedFactor="1.03" vaporized="">
        <emissions CO_abs="3000.118415" CO2_abs="62640.140711" HC_abs="15.097295" PMx_abs="1.275795" NOx_abs="27.175273" fuel_abs="19980.392259" electricity_abs="0"/>
    </tripinfo>
    <tripinfo id="rs_c000_i000_612" depart="53.00" departLane="30326559_0" departPos="5.10" departSpeed="4.27" departDelay="0.00" arrival="119.00" arrivalLane="34760663_0" arrivalPos="28.92" arrivalSpeed="10.63" duration="66.00" routeLength="671.40" waitingTime="0.00" waitingCount="0" stopTime="0.00" timeLoss="6.29" rerouteNo="1" devices="tripinfo_rs_c000_i000_612 routing_rs_c000_i000_612 emissions_rs_c000_i000_612" vType="DEFAULT_VEHTYPE" speedFactor="1.04" vaporized="">
        <emissions CO_abs="1732.483369" CO2_abs="151180.861892" HC_abs="11.275224" PMx_abs="1.762997" NOx_abs="55.402866" fuel_abs="48220.456556" electricity_abs="0"/>
    </tripinfo>
    <tripinfo id="rs_c000_i000_1471" depart="129.00" departLane="-39316011#1_0" departPos="0.20" departSpeed="4.24" departDelay="0.00" arrival="152.00" arrivalLane="286340282_0" arrivalPos="25.10" arrivalSpeed="11.96" duration="23.00" routeLength="198.57" waitingTime="0.00" waitingCount="0" stopTime="0.00" timeLoss="4.67" rerouteNo="1" devices="tripinfo_rs_c000_i000_1471 routing_rs_c000_i000_1471 emissions_rs_c000_i000_1471" vType="DEFAULT_VEHTYPE" speedFactor="1.09" vaporized="">
        <emissions CO_abs="1229.812985" CO2_abs="72156.712709" HC_abs="7.270865" PMx_abs="1.204682" NOx_abs="29.227372" fuel_abs="23014.817657" electricity_abs="0"/>
    </tripinfo>
    <tripinfo id="rs_c000_i000_529" depart="47.00" departLane="-122529096#6_0" departPos="5.10" departSpeed="8.16" departDelay="0.00" arrival="163.00" arrivalLane="26187755#0_0" arrivalPos="56.03" arrivalSpeed="9.85" duration="116.00" routeLength="878.92" waitingTime="0.00" waitingCount="0" stopTime="0.00" timeLoss="10.64" rerouteNo="1" devices="tripinfo_rs_c000_i000_529 routing_rs_c000_i000_529 emissions_rs_c000_i000_529" vType="DEFAULT_VEHTYPE" speedFactor="0.98" vaporized="">
        <emissions CO_abs="4262.664094" CO2_abs="210980.719199" HC_abs="24.172715" PMx_abs="2.955359" NOx_abs="82.510494" fuel_abs="67294.583123" electricity_abs="0"/>
    </tripinfo>
    <tripinfo id="rs_c001_i000_213" depart="100.00" departLane="-328813517_0" departPos="5.10" departSpeed="8.48" departDelay="0.00" arrival="173.00" arrivalLane="104147692_2" arrivalPos="152.19" arrivalSpeed="10.89" duration="73.00" routeLength="648.92" waitingTime="0.00" waitingCount="0" stopTime="0.00" timeLoss="5.81" rerouteNo="1" devices="tripinfo_rs_c001_i000_213 routing_rs_c001_i000_213 emissions_rs_c001_i000_213" vType="DEFAULT_VEHTYPE" speedFactor="1.02" vaporized="">
        <emissions CO_abs="2175.270790" CO2_abs="139136.876166" HC_abs="13.026748" PMx_abs="1.753880" NOx_abs="52.590293" fuel_abs="44379.075322" electricity_abs="0"/>
    </tripinfo>
    <personinfo id="p9" depart="91.00" type="DEFAULT_PEDTYPE" speedFactor="1.01">
        <ride waitingTime="36.00" vehicle="t83" depart="127.00" arrival="175.00" arrivalPos="13.36" duration="48.00" routeLength="264.76" timeLoss="15.74"/>
    </personinfo>
    <tripinfo id="rs_c000_i000_896" depart="78.00" departLane="87397777_0" departPos="5.10" departSpeed="7.84" departDelay="0.00" arrival="185.00" arrivalLane="362987791#0_0" arrivalPos="18.06" arrivalSpeed="12.42" duration="107.00" routeLength="846.67" waitingTime="19.00" waitingCount="2" stopTime="0.00" timeLoss="35.60" rerouteNo="1" devices="tripinfo_rs_c000_i000_896 routing_rs_c000_i000_896 emissions_rs_c000_i000_896" vType="DEFAULT_VEHTYPE" speedFactor="0.94" vaporized="">
        <emissions CO_abs="6814.619318" CO2_abs="286325.101297" HC_abs="37.482962" PMx_abs="4.908848" NOx_abs="115.879473" fuel_abs="91326.254360" electricity_abs="0"/>
    </tripinfo>
    <tripinfo id="rs_c000_i000_105" depart="8.00" departLane="-52673136_0" departPos="5.10" departSpeed="8.54" departDelay="0.00" arrival="186.00" arrivalLane="24429380-AddedOffRampEdge_0" arrivalPos="94.42" arrivalSpeed="21.90" duration="178.00" routeLength="1706.35" waitingTime="35.00" waitingCount="2" stopTime="0.00" timeLoss="57.35" rerouteNo="1" devices="tripinfo_rs_c000_i000_105 routing_rs_c000_i000_105 emissions_rs_c000_i000_105" vType="DEFAULT_VEHTYPE" speedFactor="1.02" vaporized="">
        <emissions CO_abs="12157.329501" CO2_abs="536118.760247" HC_abs="67.464050" PMx_abs="9.755059" NOx_abs="216.928548" fuel_abs="170999.620108" electricity_abs="0"/>
    </tripinfo>
    <tripinfo id="rs_c000_i000_843" depart="72.00" departLane="-14573382#2_0" departPos="5.10" departSpeed="11.19" departDelay="0.00" arrival="194.00" arrivalLane="35062429#0_0" arrivalPos="13.36" arrivalSpeed="5.22" duration="122.00" routeLength="1083.51" waitingTime="3.00" waitingCount="2" stopTime="0.00" timeLoss="24.58" rerouteNo="1" devices="tripinfo_rs_c000_i000_843 routing_rs_c000_i000_843 emissions_rs_c000_i000_843" vType="DEFAULT_VEHTYPE" speedFactor="1.01" vaporized="">
        <emissions CO_abs="4837.324385" CO2_abs="272400.937556" HC_abs="28.235976" PMx_abs="3.971293" NOx_abs="105.833674" fuel_abs="86884.773545" electricity_abs="0"/>
    </tripinfo>
    <personinfo id="p4" depart="43.00" type="DEFAULT_PEDTYPE" speedFactor="0.97">
        <ride waitingTime="62.00" vehicle="t90" depart="105.00" arrival="200.00" arrivalPos="13.36" duration="95.00" routeLength="668.72" timeLoss="22.41"/>
    </personinfo>
    <tripinfo id="rs_c000_i000_487" depart="43.00" departLane="-95212556_0" departPos="5.10" departSpeed="7.97" departDelay="0.00" arrival="206.00" arrivalLane="24428921_0" arrivalPos="172.26" arrivalSpeed="10.28" duration="163.00" routeLength="1339.42" waitingTime="12.00" waitingCount="2" stopTime="0.00" timeLoss="34.97" rerouteNo="1" devices="tripinfo_rs_c000_i000_487 routing_rs_c000_i000_487 emissions_rs_c000_i000_487" vType="DEFAULT_VEHTYPE" speedFactor="0.96" vaporized="">
        <emissions CO_abs="7948.450906" CO2_abs="378534.730000" HC_abs="44.814636" PMx_abs="5.783825" NOx_abs="149.257552" fuel_abs="120737.537483" electricity_abs="0"/>
    </tripinfo>
    <tripinfo id="rs_c001_i000_293" depart="144.00" departLane="-51722315#0_0" departPos="5.10" departSpeed="9.33" departDelay="0.00" arrival="207.00" arrivalLane="117654824#0_0" arrivalPos="55.57" arrivalSpeed="8.77" duration="63.00" routeLength="517.19" waitingTime="0.00" waitingCount="0" stopTime="0.00" timeLoss="6.62" rerouteNo="1" devices="tripinfo_rs_c001_i000_293 routing_rs_c001_i000_293 emissions_rs_c001_i000_293" vType="DEFAULT_VEHTYPE" speedFactor="0.84" vaporized="">
        <emissions CO_abs="2283.292407" CO2_abs="131071.266320" HC_abs="13.361285" PMx_abs="1.789605" NOx_abs="50.740916" fuel_abs="41806.436387" electricity_abs="0"/>
    </tripinfo>
    <tripinfo id="rs_c000_i001_114" depart="151.00" departLane="-211120148_0" departPos="5.10" departSpeed="10.89" departDelay="0.00" arrival="217.00" arrivalLane="35062429#0_0" arrivalPos="13.36" arrivalSpeed="10.66" duration="66.00" routeLength="651.02" waitingTime="0.00" waitingCount="0" stopTime="0.00" timeLoss="5.37" rerouteNo="1" devices="tripinfo_rs_c000_i001_114 routing_rs_c000_i001_114 emissions_rs_c000_i001_114" vType="DEFAULT_VEHTYPE" speedFactor="0.98" vaporized="">
        <emissions CO_abs="1762.669256" CO2_abs="135684.575887" HC_abs="11.115592" PMx_abs="1.821190" NOx_abs="51.774476" fuel_abs="43277.592189" electricity_abs="0"/>
    </tripinfo>
    <tripinfo id="rs_c000_i001_35" depart="27.00" departLane="-74011129#0_0" departPos="5.10" departSpeed="10.90" departDelay="0.00" arrival="219.00" arrivalLane="25980639_0" arrivalPos="69.71" arrivalSpeed="13.60" duration="192.00" routeLength="2140.15" waitingTime="14.00" waitingCount="1" stopTime="0.00" timeLoss="27.51" rerouteNo="1" devices="tripinfo_rs_c000_i001_35 routing_rs_c000_i001_35 emissions_rs_c000_i001_35" vType="DEFAULT_VEHTYPE" speedFactor="0.98" vaporized="">
        <emissions CO_abs="5861.339914" CO2_abs="456038.015918" HC_abs="36.229979" PMx_abs="6.007446" NOx_abs="169.065037" fuel_abs="145456.962036" electricity_abs="0"/>
    </tripinfo>
    <tripinfo id="rs_c000_i000_1859" depart="165.00" departLane="-14433921#1_0" departPos="5.10" departSpeed="13.61" departDelay="0.00" arrival="219.00" arrivalLane="38455846_0" arrivalPos="223.48" arrivalSpeed="10.86" duration="54.00" routeLength="557.41" waitingTime="0.00" waitingCount="0" stopTime="0.00" timeLoss="5.09" rerouteNo="1" devices="tripinfo_rs_c000_i000_1859 routing_rs_c000_i000_1859 emissions_rs_c000_i000_1859" vType="DEFAULT_VEHTYPE" speedFactor="0.98" vaporized="">
        <emissions CO_abs="1584.310329" CO2_abs="126890.423721" HC_abs="10.097499" PMx_abs="1.748168" NOx_abs="48.475121" fuel_abs="40472.560698" electricity_abs="0"/>
    </tripinfo>
    <tripinfo id="rs_c000_i000_1879" depart="167.00" departLane="-5234280#0_0" departPos="5.10" departSpeed="12.04" departDelay="0.00" arrival="228.00" arrivalLane="38455846_0" arrivalPos="223.48" arrivalSpeed="11.64" duration="61.00" routeLength="614.31" waitingTime="0.00" waitingCount="0" stopTime="0.00" timeLoss="6.17" rerouteNo="1" devices="tripinfo_rs_c000_i000_1879 routing_rs_c000_i000_1879 emissions_rs_c000_i000_1879" vType="DEFAULT_VEHTYPE" speedFactor="1.08" vaporized="">
        <emissions CO_abs="1897.332187" CO2_abs="145110.763743" HC_abs="11.963347" PMx_abs="2.065202" NOx_abs="55.971258" fuel_abs="46284.036040" electricity_abs="0"/>
    </tripinfo>
    <tripinfo id="rs_c000_i002_40" depart="164.00" departLane="-335084841#0_0" departPos="5.10" departSpeed="8.95" departDelay="0.00" arrival="230.00" arrivalLane="102332984#0_0" arrivalPos="95.06" arrivalSpeed="17.18" duration="66.00" routeLength="914.32" waitingTime="0.00" waitingCount="0" stopTime="0.00" timeLoss="7.43" rerouteNo="1" devices="tripinfo_rs_c000_i002_40 routing_rs_c000_i002_40 emissions_rs_c000_i002_40" vType="DEFAULT_VEHTYPE" speedFactor="1.07" vaporized="">
        <emissions CO_abs="2045.880134" CO2_abs="208536.034645" HC_abs="13.784235" PMx_abs="3.221139" NOx_abs="79.168409" fuel_abs="66513.340434" electricity_abs="0"/>
    </tripinfo>
    <tripinfo id="rs_c000_i000_657" depart="56.00" departLane="4273624_0" departPos="5.10" departSpeed="8.88" departDelay="0.00" arrival="235.00" arrivalLane="1081179231_0" arrivalPos="4.80" arrivalSpeed="13.02" duration="179.00" routeLength="2406.44" waitingTime="0.00" waitingCount="0" stopTime="0.00" timeLoss="20.57" rerouteNo="1" devices="tripinfo_rs_c000_i000_657 routing_rs_c000_i000_657 emissions_rs_c000_i000_657" vType="DEFAULT_VEHTYPE" speedFactor="1.07" vaporized="">
        <emissions CO_abs="5911.179438" CO2_abs="529451.169609" HC_abs="38.278836" PMx_abs="8.437500" NOx_abs="202.421153" fuel_abs="168870.500502" electricity_abs="0"/>
    </tripinfo>
    <tripinfo id="rs_c000_i000_882" depart="76.00" departLane="-10425858_0" departPos="5.10" departSpeed="11.65" departDelay="0.00" arrival="235.00" arrivalLane="139124541#0_1" arrivalPos="77.20" arrivalSpeed="10.45" duration="159.00" routeLength="1494.46" waitingTime="1.00" waitingCount="1" stopTime="0.00" timeLoss="29.89" rerouteNo="1" devices="tripinfo_rs_c000_i000_882 routing_rs_c000_i000_882 emissions_rs_c000_i000_882" vType="DEFAULT_VEHTYPE" speedFactor="1.05" vaporized="">
        <emissions CO_abs="5872.000812" CO2_abs="374227.574079" HC_abs="35.272973" PMx_abs="5.467583" NOx_abs="145.374847" fuel_abs="119362.798377" electricity_abs="0"/>
    </tripinfo>
    <tripinfo id="rs_c000_i000_975" depart="85.00" departLane="62789947#2_0" departPos="5.10" departSpeed="11.97" departDelay="0.00" arrival="239.00" arrivalLane="25980639_0" arrivalPos="69.71" arrivalSpeed="14.25" duration="154.00" routeLength="1492.44" waitingTime="30.00" waitingCount="2" stopTime="0.00" timeLoss="46.86" rerouteNo="1" devices="tripinfo_rs_c000_i000_975 routing_rs_c000_i000_975 emissions_rs_c000_i000_975" vType="DEFAULT_VEHTYPE" speedFactor="1.08" vaporized="">
        <emissions CO_abs="8950.679059" CO2_abs="426597.111190" HC_abs="49.971683" PMx_abs="7.108811" NOx_abs="168.234674" fuel_abs="136066.995262" electricity_abs="0"/>
    </tripinfo>
    <tripinfo id="rs_c000_i000_2018" depart="181.00" departLane="118869284#0_0" departPos="5.10" departSpeed="9.59" departDelay="0.00" arrival="239.00" arrivalLane="26187755#0_0" arrivalPos="56.03" arrivalSpeed="11.83" duration="58.00" routeLength="551.64" waitingTime="0.00" waitingCount="0" stopTime="0.00" timeLoss="4.75" rerouteNo="1" devices="tripinfo_rs_c000_i000_2018 routing_rs_c000_i000_2018 emissions_rs_c000_i000_2018" vType="DEFAULT_VEHTYPE" speedFactor="1.15" vaporized="">
        <emissions CO_abs="1939.267232" CO2_abs="134132.472651" HC_abs="11.852833" PMx_abs="1.946176" NOx_abs="52.208293" fuel_abs="42782.483692" electricity_abs="0"/>
    </tripinfo>
    <tripinfo id="rs_c000_i002_46" depart="187.00" departLane="14571550#1_0" departPos="5.10" departSpeed="3.83" departDelay="0.00" arrival="239.00" arrivalLane="38455846_0" arrivalPos="223.48" arrivalSpeed="11.68" duration="52.00" routeLength="530.78" waitingTime="0.00" waitingCount="0" stopTime="0.00" timeLoss="6.25" rerouteNo="1" devices="tripinfo_rs_c000_i002_46 routing_rs_c000_i002_46 emissions_rs_c000_i002_46" vType="DEFAULT_VEHTYPE" speedFactor="1.15" vaporized="">
        <emissions CO_abs="1937.867388" CO2_abs="141682.116212" HC_abs="12.071922" PMx_abs="2.109105" NOx_abs="55.300710" fuel_abs="45190.385314" electricity_abs="0"/>
    </tripinfo>
    <personinfo id="p3" depart="38.00" type="DEFAULT_PEDTYPE" speedFactor="0.94">
        <ride waitingTime="73.00" vehicle="t8" depart="111.00" arrival="241.00" arrivalPos="28.92" duration="130.00" routeLength="1072.61" timeLoss="15.40"/>
    </personinfo>
    <tripinfo id="rs_c000_i000_303" depart="25.00" departLane="56253839_0" departPos="5.10" departSpeed="11.47" departDelay="0.00" arrival="242.00" arrivalLane="25980639_0" arrivalPos="69.71" arrivalSpeed="14.34" duration="217.00" routeLength="2239.54" waitingTime="19.00" waitingCount="2" stopTime="0.00" timeLoss="39.92" rerouteNo="1" devices="tripinfo_rs_c000_i000_303 routing_rs_c000_i000_303 emissions_rs_c000_i000_303" vType="DEFAULT_VEHTYPE" speedFactor="1.03" vaporized="">
        <emissions CO_abs="8593.441384" CO2_abs="523690.852170" HC_abs="50.541269" PMx_abs="7.752147" NOx_abs="201.247064" fuel_abs="167035.487250" electricity_abs="0"/>
    </tripinfo>
    <tripinfo id="rs_c001_i000_340" depart="171.00" departLane="462046218_0" departPos="5.10" departSpeed="11.92" departDelay="0.00" arrival="242.00" arrivalLane="38455846_0" arrivalPos="223.48" arrivalSpeed="10.90" duration="71.00" routeLength="689.82" waitingTime="0.00" waitingCount="0" stopTime="0.00" timeLoss="6.42" rerouteNo="1" devices="tripinfo_rs_c001_i000_340 routing_rs_c001_i000_340 emissions_rs_c001_i000_340" vType="DEFAULT_VEHTYPE" speedFactor="1.07" vaporized="">
        <emissions CO_abs="2186.736712" CO2_abs="162798.547973" HC_abs="13.602132" PMx_abs="2.032684" NOx_abs="60.991858" fuel_abs="51926.022071" electricity_abs="0"/>
    </tripinfo>
    <personinfo id="p8" depart="91.00" type="DEFAULT_PEDTYPE" speedFactor="0.90">
        <ride waitingTime="35.00" vehicle="t55" depart="126.00" arrival="245.00" arrivalPos="13.36" duration="119.00" routeLength="1164.23" timeLoss="12.61"/>
    </personinfo>
    <tripinfo id="rs_c000_i000_48" depart="4.00" departLane="-38807023_0" departPos="5.10" departSpeed="12.40" departDelay="0.00" arrival="246.00" arrivalLane="104147692_0" arrivalPos="152.19" arrivalSpeed="8.91" duration="242.00" routeLength="2063.17" waitingTime="31.00" waitingCount="3" stopTime="0.00" timeLoss="62.72" rerouteNo="1" devices="tripinfo_rs_c000_i000_48 routing_rs_c000_i000_48 emissions_rs_c000_i000_48" vType="DEFAULT_VEHTYPE" speedFactor="0.89" vaporized="">
        <emissions CO_abs="12993.376609" CO2_abs="593849.040453" HC_abs="72.677929" PMx_abs="9.698091" NOx_abs="236.905457" fuel_abs="189413.946392" electricity_abs="0"/>
    </tripinfo>
    <tripinfo id="rs_c000_i000_895" depart="173.00" departLane="-79690674#0_0" departPos="5.10" departSpeed="8.33" departDelay="0.00" arrival="247.00" arrivalLane="34760663_0" arrivalPos="28.92" arrivalSpeed="10.28" duration="74.00" routeLength="727.47" waitingTime="0.00" waitingCount="0" stopTime="0.00" timeLoss="6.14" rerouteNo="1" devices="tripinfo_rs_c000_i000_895 routing_rs_c000_i000_895 emissions_rs_c000_i000_895" vType="DEFAULT_VEHTYPE" speedFactor="1.00" vaporized="">
        <emissions CO_abs="1944.212764" CO2_abs="157149.714469" HC_abs="12.398303" PMx_abs="1.920940" NOx_abs="58.584842" fuel_abs="50124.224060" electricity_abs="0"/>
    </tripinfo>
    <tripinfo id="rs_c000_i000_504_part1" depart="76.00" departLane="116049443#1_0" departPos="5.10" departSpeed="7.02" departDelay="0.00" arrival="248.00" arrivalLane="26187755#0_0" arrivalPos="56.03" arrivalSpeed="9.27" duration="172.00" routeLength="1103.35" waitingTime="3.00" waitingCount="1" stopTime="0.00" timeLoss="21.13" rerouteNo="1" devices="tripinfo_rs_c000_i000_504_part1 routing_rs_c000_i000_504_part1 emissions_rs_c000_i000_504_part1" vType="DEFAULT_VEHTYPE" speedFactor="0.84" vaporized="">
        <emissions CO_abs="7734.037473" CO2_abs="307011.251471" HC_abs="42.159192" PMx_abs="4.631266" NOx_abs="122.546045" fuel_abs="97925.131108" electricity_abs="0"/>
    </tripinfo>
    <tripinfo id="rs_c000_i000_920" depart="81.00" departLane="51340803#1_0" departPos="5.10" departSpeed="10.62" departDelay="0.00" arrival="250.00" arrivalLane="139124541#0_0" arrivalPos="77.20" arrivalSpeed="10.17" duration="169.00" routeLength="1587.28" waitingTime="2.00" waitingCount="1" stopTime="0.00" timeLoss="18.63" rerouteNo="1" devices="tripinfo_rs_c000_i000_920 routing_rs_c000_i000_920 emissions_rs_c000_i000_920" vType="DEFAULT_VEHTYPE" speedFactor="0.96" vaporized="">
        <emissions CO_abs="5308.128033" CO2_abs="360862.944907" HC_abs="32.319818" PMx_abs="4.612019" NOx_abs="136.232200" fuel_abs="115100.547119" electricity_abs="0"/>
    </tripinfo>
    <tripinfo id="rs_c000_i000_1442" depart="127.00" departLane="136864086_0" departPos="5.10" departSpeed="8.09" departDelay="0.00" arrival="257.00" arrivalLane="58423646_0" arrivalPos="143.57" arrivalSpeed="10.13" duration="130.00" routeLength="1029.79" waitingTime="11.00" waitingCount="1" stopTime="0.00" timeLoss="23.70" rerouteNo="1" devices="tripinfo_rs_c000_i000_1442 routing_rs_c000_i000_1442 emissions_rs_c000_i000_1442" vType="DEFAULT_VEHTYPE" speedFactor="0.97" vaporized="">
        <emissions CO_abs="5743.653581" CO2_abs="272939.804787" HC_abs="32.369170" PMx_abs="4.069901" NOx_abs="107.278802" fuel_abs="87057.056708" electricity_abs="0"/>
    </tripinfo>
    <tripinfo id="rs_c000_i000_81" depart="7.00" departLane="5231759_0" departPos="5.10" departSpeed="9.20" departDelay="0.00" arrival="270.00" arrivalLane="29970080#0_0" arrivalPos="49.09" arrivalSpeed="8.80" duration="263.00" routeLength="2102.84" waitingTime="3.00" waitingCount="1" stopTime="0.00" timeLoss="29.12" rerouteNo="1" devices="tripinfo_rs_c000_i000_81 routing_rs_c000_i000_81 emissions_rs_c000_i000_81" vType="DEFAULT_VEHTYPE" speedFactor="0.83" vaporized="">
        <emissions CO_abs="9797.226423" CO2_abs="510343.766585" HC_abs="56.090127" PMx_abs="6.784600" NOx_abs="196.404699" fuel_abs="162779.816740" electricity_abs="0"/>
    </tripinfo>
    <personinfo id="p0" depart="18.00" type="DEFAULT_PEDTYPE" speedFactor="1.03">
        <ride waitingTime="68.00" vehicle="t39" depart="86.00" arrival="292.00" arrivalPos="18.06" duration="206.00" routeLength="1426.35" timeLoss="77.39"/>
    </personinfo>
    <personinfo id="p5" depart="49.00" type="DEFAULT_PEDTYPE" speedFactor="1.06">
        <ride waitingTime="52.00" vehicle="t37" depart="101.00" arrival="292.00" arrivalPos="66.34" duration="191.00" routeLength="1641.74" timeLoss="31.49"/>
    </personinfo>
    <tripinfo id="rs_c001_i000_149" depart="67.00" departLane="-83488868_0" departPos="5.10" departSpeed="5.83" departDelay="0.00" arrival="295.00" arrivalLane="104147692_2" arrivalPos="152.19" arrivalSpeed="10.39" duration="228.00" routeLength="1685.27" waitingTime="35.00" waitingCount="3" stopTime="0.00" timeLoss="70.11" rerouteNo="1" devices="tripinfo_rs_c001_i000_149 routing_rs_c001_i000_149 emissions_rs_c001_i000_149" vType="DEFAULT_VEHTYPE" speedFactor="0.98" vaporized="">
        <emissions CO_abs="14144.868452" CO2_abs="560064.164102" HC_abs="77.336369" PMx_abs="9.612801" NOx_abs="228.338433" fuel_abs="178638.484081" electricity_abs="0"/>
    </tripinfo>
    <personinfo id="p7" depart="80.00" type="DEFAULT_PEDTYPE" speedFactor="1.03">
        <ride waitingTime="40.00" vehicle="t53" depart="120.00" arrival="297.00" arrivalPos="143.57" duration="177.00" routeLength="1473.85" timeLoss="29.45"/>
    </personinfo>
    <tripinfo id="rs_c000_i001_79" depart="57.00" departLane="61496433_0" departPos="5.10" departSpeed="8.81" departDelay="0.00" arrival="308.00" arrivalLane="28230831_1" arrivalPos="5.16" arrivalSpeed="16.64" duration="251.00" routeLength="2218.58" waitingTime="47.00" waitingCount="3" stopTime="0.00" timeLoss="77.21" rerouteNo="1" devices="tripinfo_rs_c000_i001_79 routing_rs_c000_i001_79 emissions_rs_c000_i001_79" vType="DEFAULT_VEHTYPE" speedFactor="1.06" vaporized="">
        <emissions CO_abs="15537.998695" CO2_abs="665557.226984" HC_abs="85.319979" PMx_abs="11.481605" NOx_abs="266.962378" fuel_abs="212285.897371" electricity_abs="0"/>
    </tripinfo>
    <tripinfo id="rs_c000_i000_990" depart="86.00" departLane="83163114#1_0" departPos="5.10" departSpeed="10.58" departDelay="0.00" arrival="310.00" arrivalLane="39139679_0" arrivalPos="73.83" arrivalSpeed="12.15" duration="224.00" routeLength="2050.77" waitingTime="7.00" waitingCount="1" stopTime="0.00" timeLoss="29.70" rerouteNo="1" devices="tripinfo_rs_c000_i000_990 routing_rs_c000_i000_990 emissions_rs_c000_i000_990" vType="DEFAULT_VEHTYPE" speedFactor="0.95" vaporized="">
        <emissions CO_abs="8529.922155" CO2_abs="518827.346549" HC_abs="50.572930" PMx_abs="7.568904" NOx_abs="202.063394" fuel_abs="165484.215736" electricity_abs="0"/>
    </tripinfo>
    <tripinfo id="rs_c000_i000_1621" depart="143.00" departLane="4492786_0" departPos="0.20" departSpeed="0.00" departDelay="0.00" arrival="311.00" arrivalLane="102332984#0_0" arrivalPos="95.06" arrivalSpeed="15.59" duration="168.00" routeLength="2237.70" waitingTime="15.00" waitingCount="2" stopTime="0.00" timeLoss="34.82" rerouteNo="1" devices="tripinfo_rs_c000_i000_1621 routing_rs_c000_i000_1621 emissions_rs_c000_i000_1621" vType="DEFAULT_VEHTYPE" speedFactor="1.01" vaporized="">
        <emissions CO_abs="7429.690464" CO2_abs="532136.141416" HC_abs="44.308387" PMx_abs="8.324947" NOx_abs="200.258682" fuel_abs="169727.916540" electricity_abs="0"/>
    </tripinfo>
    <tripinfo id="rs_c000_i000_384" depart="33.00" departLane="290255300_0" departPos="5.10" departSpeed="5.75" departDelay="0.00" arrival="313.00" arrivalLane="58423646_0" arrivalPos="143.57" arrivalSpeed="7.26" duration="280.00" routeLength="1572.99" waitingTime="3.00" waitingCount="1" stopTime="0.00" timeLoss="35.76" rerouteNo="1" devices="tripinfo_rs_c000_i000_384 routing_rs_c000_i000_384 emissions_rs_c000_i000_384" vType="DEFAULT_VEHTYPE" speedFactor="0.69" vaporized="">
        <emissions CO_abs="14042.230331" CO2_abs="479726.338824" HC_abs="74.759579" PMx_abs="7.438682" NOx_abs="193.358612" fuel_abs="153015.767863" electricity_abs="0"/>
    </tripinfo>
    <tripinfo id="rs_c000_i000_2965" depart="269.00" departLane="-22914198_0" departPos="5.10" departSpeed="11.90" departDelay="0.00" arrival="314.00" arrivalLane="35062429#0_0" arrivalPos="13.36" arrivalSpeed="11.06" duration="45.00" routeLength="459.64" waitingTime="0.00" waitingCount="0" stopTime="0.00" timeLoss="4.72" rerouteNo="1" devices="tripinfo_rs_c000_i000_2965 routing_rs_c000_i000_2965 emissions_rs_c000_i000_2965" vType="DEFAULT_VEHTYPE" speedFactor="1.07" vaporized="">
        <emissions CO_abs="1400.205356" CO2_abs="112232.072863" HC_abs="8.902836" PMx_abs="1.613729" NOx_abs="43.307457" fuel_abs="35797.100971" electricity_abs="0"/>
    </tripinfo>
    <tripinfo id="rs_c001_i000_348" depart="177.00" departLane="51856551#0_1" departPos="5.10" departSpeed="7.90" departDelay="0.00" arrival="325.00" arrivalLane="30471451_0" arrivalPos="11.61" arrivalSpeed="9.88" duration="148.00" routeLength="1333.59" waitingTime="16.00" waitingCount="3" stopTime="0.00" timeLoss="38.80" rerouteNo="1" devices="tripinfo_rs_c001_i000_348 routing_rs_c001_i000_348 emissions_rs_c001_i000_348" vType="DEFAULT_VEHTYPE" speedFactor="0.95" vaporized="">
        <emissions CO_abs="7808.545033" CO2_abs="387197.927836" HC_abs="44.373501" PMx_abs="6.399109" NOx_abs="154.687075" fuel_abs="123500.071077" electricity_abs="0"/>
    </tripinfo>
    <tripinfo id="rs_c000_i000_2475" depart="224.00" departLane="-26127182#2_0" departPos="5.10" departSpeed="8.41" departDelay="0.00" arrival="328.00" arrivalLane="26187755#0_0" arrivalPos="56.03" arrivalSpeed="10.34" duration="104.00" routeLength="803.16" waitingTime="0.00" waitingCount="0" stopTime="0.00" timeLoss="9.81" rerouteNo="1" devices="tripinfo_rs_c000_i000_2475 routing_rs_c000_i000_2475 emissions_rs_c000_i000_2475" vType="DEFAULT_VEHTYPE" speedFactor="1.01" vaporized="">
        <emissions CO_abs="3672.552837" CO2_abs="193969.693460" HC_abs="21.106802" PMx_abs="2.741586" NOx_abs="75.807470" fuel_abs="61868.567161" electricity_abs="0"/>
    </tripinfo>
    <tripinfo id="rs_c000_i000_2206" depart="263.00" departLane="301503168#1_0" departPos="5.10" departSpeed="10.59" departDelay="0.00" arrival="331.00" arrivalLane="35061798_0" arrivalPos="119.59" arrivalSpeed="12.88" duration="68.00" routeLength="695.47" waitingTime="0.00" waitingCount="0" stopTime="0.00" timeLoss="5.33" rerouteNo="1" devices="tripinfo_rs_c000_i000_2206 routing_rs_c000_i000_2206 emissions_rs_c000_i000_2206" vType="DEFAULT_VEHTYPE" speedFactor="0.95" vaporized="">
        <emissions CO_abs="1880.008258" CO2_abs="159185.253367" HC_abs="12.126460" PMx_abs="2.097050" NOx_abs="60.059970" fuel_abs="50773.258183" electricity_abs="0"/>
    </tripinfo>
    <tripinfo id="rs_c000_i000_1724" depart="325.00" departLane="35703215_0" departPos="5.10" departSpeed="6.93" departDelay="0.74" arrival="335.00" arrivalLane="-1075684663#0_0" arrivalPos="26.28" arrivalSpeed="17.46" duration="10.00" routeLength="92.14" waitingTime="0.00" waitingCount="0" stopTime="0.00" timeLoss="4.61" rerouteNo="1" devices="tripinfo_rs_c000_i000_1724 routing_rs_c000_i000_1724 emissions_rs_c000_i000_1724" vType="DEFAULT_VEHTYPE" speedFactor="1.03" vaporized="">
        <emissions CO_abs="1023.436409" CO2_abs="60520.547732" HC_abs="6.105106" PMx_abs="1.202651" NOx_abs="25.688323" fuel_abs="19303.175733" electricity_abs="0"/>
    </tripinfo>
    <tripinfo id="rs_c000_i000_2871" depart="261.00" departLane="125351110_0" departPos="5.10" departSpeed="8.33" departDelay="0.00" arrival="337.00" arrivalLane="144246396#1_0" arrivalPos="142.25" arrivalSpeed="9.84" duration="76.00" routeLength="630.34" waitingTime="0.00" waitingCount="0" stopTime="0.00" timeLoss="6.74" rerouteNo="1" devices="tripinfo_rs_c000_i000_2871 routing_rs_c000_i000_2871 emissions_rs_c000_i000_2871" vType="DEFAULT_VEHTYPE" speedFactor="1.00" vaporized="">
        <emissions CO_abs="2397.455759" CO2_abs="132560.525061" HC_abs="13.906935" PMx_abs="1.783151" NOx_abs="51.115735" fuel_abs="42281.539288" electricity_abs="0"/>
    </tripinfo>