<?xml version="1.0" encoding="UTF-8"?>

<!-- generated on 2024-07-30 15:30:04 by Eclipse SUMO GUI Version 1.20.0
<configuration xmlns:xsi="http://www.w3.org/2001/XMLSchema-instance" xsi:noNamespaceSchemaLocation="http://sumo.dlr.de/xsd/sumoConfiguration.xsd">

    <input>
        <net-file value="/home/beimukvo/prj/AIforLEssAuto/WP4/rl-ridepooling/src/demand generation/output/2024-07-30T15-30-03_area1_sampled_0.2/simulation/area1_connected.net.xml"/>
        <route-files value="/home/beimukvo/prj/AIforLEssAuto/WP4/rl-ridepooling/src/demand generation/output/2024-07-30T15-30-03_area1_sampled_0.2/simulation/area1_sampled_0.2_taxis.rou.xml"/>
        <additional-files value="/home/beimukvo/prj/AIforLEssAuto/WP4/rl-ridepooling/src/demand generation/output/2024-07-30T15-30-03_area1_sampled_0.2/simulation/area1_gcc_parkingareas_plain.add.xml"/>
    </input>

    <output>
        <emission-output value="/home/beimukvo/prj/AIforLEssAuto/WP4/rl-ridepooling/src/demand generation/output/2024-07-30T15-30-03_area1_sampled_0.2/simulation/gui_output/emissions.xml"/>
        <tripinfo-output value="/home/beimukvo/prj/AIforLEssAuto/WP4/rl-ridepooling/src/demand generation/output/2024-07-30T15-30-03_area1_sampled_0.2/simulation/gui_output/tripinfo.xml"/>
        <tripinfo-output.write-undeparted value="True"/>
    </output>

    <time>
        <begin value="0"/>
        <end value="3600"/>
    </time>

    <processing>
        <ignore-junction-blocker value="1"/>
    </processing>

    <report>
        <verbose value="True"/>
        <message-log value="/home/beimukvo/prj/AIforLEssAuto/WP4/rl-ridepooling/src/demand generation/output/2024-07-30T15-30-03_area1_sampled_0.2/simulation/message.xml"/>
        <error-log value="/home/beimukvo/prj/AIforLEssAuto/WP4/rl-ridepooling/src/demand generation/output/2024-07-30T15-30-03_area1_sampled_0.2/simulation/error.xml"/>
        <duration-log.statistics value="True"/>
    </report>

    <taxi_device>
        <device.taxi.dispatch-algorithm value="greedyClosest"/>
        <device.taxi.dispatch-period value="1"/>
        <device.taxi.idle-algorithm value="stop"/>
    </taxi_device>

    <gui_only>
        <gui-settings-file value="/home/beimukvo/prj/AIforLEssAuto/WP4/rl-ridepooling/src/demand generation/output/2024-07-30T15-30-03_area1_sampled_0.2/simulation/sumoview.xml"/>
    </gui_only>

</configuration>
-->

<emission-export xmlns:xsi="http://www.w3.org/2001/XMLSchema-instance" xsi:noNamespaceSchemaLocation="http://sumo.dlr.de/xsd/emission_file.xsd">
</emission-export>
