<?xml version="1.0" encoding="UTF-8"?>

<!-- generated on 2024-03-14 21:40:48 by Eclipse SUMO libsumo Version 1.19.0
<configuration xmlns:xsi="http://www.w3.org/2001/XMLSchema-instance" xsi:noNamespaceSchemaLocation="http://sumo.dlr.de/xsd/libsumoConfiguration.xsd">

    <input>
        <net-file value="nets/ridepooling/MySUMOFile.net.xml"/>
        <route-files value="nets/ridepooling/randgridmixed.rou.xml"/>
        <additional-files value="nets/ridepooling/MySUMOparkingareas.add.xml"/>
    </input>

    <output>
        <emission-output value="nets/ridepooling/output/emissions.xml"/>
        <tripinfo-output value="nets/ridepooling/output/tripinfo.xml"/>
        <tripinfo-output.write-undeparted value="True"/>
    </output>

    <time>
        <begin value="0"/>
        <end value="3000"/>
    </time>

    <report>
        <verbose value="True"/>
        <log value="sumolog.txt"/>
        <message-log value="nets/ridepooling/message.xml"/>
        <error-log value="nets/ridepooling/error.xml"/>
        <duration-log.statistics value="True"/>
    </report>

    <taxi_device>
        <device.taxi.dispatch-algorithm value="traci"/>
        <device.taxi.dispatch-period value="1"/>
        <device.taxi.idle-algorithm value="stop"/>
    </taxi_device>

    <random_number>
        <seed value="4220"/>
    </random_number>

    <gui_only>
        <gui-settings-file value="nets/ridepooling/sumoview.xml"/>
    </gui_only>

</configuration>
-->

<tripinfos xmlns:xsi="http://www.w3.org/2001/XMLSchema-instance" xsi:noNamespaceSchemaLocation="http://sumo.dlr.de/xsd/tripinfo_file.xsd">
    <personinfo id="p1" depart="30.00" type="DEFAULT_PEDTYPE" speedFactor="1.19">
        <ride waitingTime="47.00" vehicle="t3" depart="77.00" arrival="506.00" arrivalPos="211.23" duration="429.00" routeLength="4617.84" timeLoss="40.65"/>
    </personinfo>
    <personinfo id="p0" depart="0.00" type="DEFAULT_PEDTYPE" speedFactor="1.02">
        <ride waitingTime="204.00" vehicle="t5" depart="204.00" arrival="582.00" arrivalPos="181.07" duration="378.00" routeLength="4286.26" timeLoss="51.96"/>
    </personinfo>
    <personinfo id="p4" depart="120.00" type="DEFAULT_PEDTYPE" speedFactor="0.99">
        <ride waitingTime="183.00" vehicle="t12" depart="303.00" arrival="723.00" arrivalPos="85.60" duration="420.00" routeLength="5027.03" timeLoss="59.30"/>
    </personinfo>
    <personinfo id="p10" depart="300.00" type="DEFAULT_PEDTYPE" speedFactor="0.83">
        <ride waitingTime="34.00" vehicle="t0" depart="334.00" arrival="724.00" arrivalPos="81.07" duration="390.00" routeLength="4620.03" timeLoss="45.34"/>
    </personinfo>
    <personinfo id="p5" depart="150.00" type="DEFAULT_PEDTYPE" speedFactor="0.87">
        <ride waitingTime="219.00" vehicle="t1" depart="369.00" arrival="815.00" arrivalPos="81.07" duration="446.00" routeLength="5003.23" timeLoss="63.73"/>
    </personinfo>
    <personinfo id="p12" depart="360.00" type="DEFAULT_PEDTYPE" speedFactor="0.90">
        <ride waitingTime="51.00" vehicle="t10" depart="411.00" arrival="993.00" arrivalPos="183.62" duration="582.00" routeLength="6032.54" timeLoss="66.43"/>
    </personinfo>
    <personinfo id="p13" depart="390.00" type="DEFAULT_PEDTYPE" speedFactor="0.75">
        <ride waitingTime="227.00" vehicle="t13" depart="617.00" arrival="993.00" arrivalPos="183.62" duration="376.00" routeLength="4459.06" timeLoss="52.10"/>
    </personinfo>
    <personinfo id="p17" depart="510.00" type="DEFAULT_PEDTYPE" speedFactor="0.98">
        <ride waitingTime="153.00" vehicle="t2" depart="663.00" arrival="1003.00" arrivalPos="122.50" duration="340.00" routeLength="3988.10" timeLoss="47.02"/>
    </personinfo>
    <personinfo id="p16" depart="480.00" type="DEFAULT_PEDTYPE" speedFactor="1.14">
        <ride waitingTime="261.00" vehicle="t9" depart="741.00" arrival="1133.00" arrivalPos="192.80" duration="392.00" routeLength="4650.96" timeLoss="49.93"/>
    </personinfo>
    <personinfo id="p3" depart="90.00" type="DEFAULT_PEDTYPE" speedFactor="0.92">
        <ride waitingTime="42.00" vehicle="t4" depart="132.00" arrival="1140.00" arrivalPos="89.60" duration="1008.00" routeLength="11968.86" timeLoss="131.30"/>
    </personinfo>
    <personinfo id="p2" depart="60.00" type="DEFAULT_PEDTYPE" speedFactor="0.80">
        <ride waitingTime="29.00" vehicle="t5" depart="89.00" arrival="1208.00" arrivalPos="185.60" duration="1119.00" routeLength="12681.30" timeLoss="160.28"/>
    </personinfo>
    <personinfo id="p21" depart="630.00" type="DEFAULT_PEDTYPE" speedFactor="1.09">
        <ride waitingTime="133.00" vehicle="t7" depart="763.00" arrival="1282.00" arrivalPos="130.77" duration="519.00" routeLength="6107.56" timeLoss="68.41"/>
    </personinfo>
    <personinfo id="p23" depart="690.00" type="DEFAULT_PEDTYPE" speedFactor="0.91">
        <ride waitingTime="371.00" vehicle="t6" depart="1061.00" arrival="1419.00" arrivalPos="81.07" duration="358.00" routeLength="4005.30" timeLoss="45.55"/>
    </personinfo>
    <personinfo id="p25" depart="750.00" type="DEFAULT_PEDTYPE" speedFactor="0.98">
        <ride waitingTime="55.00" vehicle="t8" depart="805.00" arrival="1419.00" arrivalPos="183.62" duration="614.00" routeLength="7422.61" timeLoss="84.50"/>
    </personinfo>
    <personinfo id="p29" depart="870.00" type="DEFAULT_PEDTYPE" speedFactor="0.75">
        <ride waitingTime="176.00" vehicle="t14" depart="1046.00" arrival="1457.00" arrivalPos="81.07" duration="411.00" routeLength="4785.14" timeLoss="66.25"/>
    </personinfo>
    <personinfo id="p6" depart="180.00" type="DEFAULT_PEDTYPE" speedFactor="0.97">
        <ride waitingTime="303.00" vehicle="t1" depart="483.00" arrival="1525.00" arrivalPos="81.07" duration="1042.00" routeLength="11853.93" timeLoss="137.66"/>
    </personinfo>
    <personinfo id="p20" depart="600.00" type="DEFAULT_PEDTYPE" speedFactor="1.12">
        <ride waitingTime="371.00" vehicle="t7" depart="971.00" arrival="1556.00" arrivalPos="85.60" duration="585.00" routeLength="6807.68" timeLoss="78.60"/>
    </personinfo>
    <personinfo id="p39" depart="1170.00" type="DEFAULT_PEDTYPE" speedFactor="0.81">
        <ride waitingTime="71.00" vehicle="t9" depart="1241.00" arrival="1613.00" arrivalPos="124.37" duration="372.00" routeLength="4393.01" timeLoss="51.16"/>
    </personinfo>
    <personinfo id="p31" depart="930.00" type="DEFAULT_PEDTYPE" speedFactor="1.11">
        <ride waitingTime="366.00" vehicle="t3" depart="1296.00" arrival="1654.00" arrivalPos="176.55" duration="358.00" routeLength="3756.77" timeLoss="40.18"/>
    </personinfo>
    <personinfo id="p14" depart="420.00" type="DEFAULT_PEDTYPE" speedFactor="0.96">
        <ride waitingTime="342.00" vehicle="t4" depart="762.00" arrival="1661.00" arrivalPos="81.07" duration="899.00" routeLength="10445.64" timeLoss="123.71"/>
    </personinfo>
    <personinfo id="p27" depart="810.00" type="DEFAULT_PEDTYPE" speedFactor="1.19">
        <ride waitingTime="314.00" vehicle="t0" depart="1124.00" arrival="1698.00" arrivalPos="87.47" duration="574.00" routeLength="6508.06" timeLoss="86.63"/>
    </personinfo>
    <personinfo id="p22" depart="660.00" type="DEFAULT_PEDTYPE" speedFactor="0.98">
        <ride waitingTime="296.00" vehicle="t5" depart="956.00" arrival="1718.00" arrivalPos="92.80" duration="762.00" routeLength="8820.86" timeLoss="95.27"/>
    </personinfo>
    <personinfo id="p38" depart="1140.00" type="DEFAULT_PEDTYPE" speedFactor="0.90">
        <ride waitingTime="252.00" vehicle="t4" depart="1392.00" arrival="1726.00" arrivalPos="81.07" duration="334.00" routeLength="3620.70" timeLoss="54.54"/>
    </personinfo>
    <personinfo id="p26" depart="780.00" type="DEFAULT_PEDTYPE" speedFactor="1.17">
        <ride waitingTime="616.00" vehicle="t11" depart="1396.00" arrival="1766.00" arrivalPos="185.60" duration="370.00" routeLength="4225.61" timeLoss="49.11"/>
    </personinfo>
    <personinfo id="p37" depart="1110.00" type="DEFAULT_PEDTYPE" speedFactor="1.04">
        <ride waitingTime="337.00" vehicle="t2" depart="1447.00" arrival="1798.00" arrivalPos="205.99" duration="351.00" routeLength="4276.74" timeLoss="40.95"/>
    </personinfo>
    <personinfo id="p32" depart="960.00" type="DEFAULT_PEDTYPE" speedFactor="1.09">
        <ride waitingTime="441.00" vehicle="t12" depart="1401.00" arrival="1801.00" arrivalPos="81.07" duration="400.00" routeLength="4679.07" timeLoss="63.00"/>
    </personinfo>
    <personinfo id="p35" depart="1050.00" type="DEFAULT_PEDTYPE" speedFactor="1.04">
        <ride waitingTime="349.00" vehicle="t13" depart="1399.00" arrival="1802.00" arrivalPos="92.80" duration="403.00" routeLength="4867.51" timeLoss="51.65"/>
    </personinfo>
    <personinfo id="p30" depart="900.00" type="DEFAULT_PEDTYPE" speedFactor="1.06">
        <ride waitingTime="366.00" vehicle="t0" depart="1266.00" arrival="1850.00" arrivalPos="205.99" duration="584.00" routeLength="6470.91" timeLoss="90.10"/>
    </personinfo>
    <personinfo id="p33" depart="990.00" type="DEFAULT_PEDTYPE" speedFactor="1.07">
        <ride waitingTime="189.00" vehicle="t11" depart="1179.00" arrival="1939.00" arrivalPos="117.97" duration="760.00" routeLength="8542.35" timeLoss="108.81"/>
    </personinfo>
    <personinfo id="p34" depart="1020.00" type="DEFAULT_PEDTYPE" speedFactor="1.10">
        <ride waitingTime="511.00" vehicle="t10" depart="1531.00" arrival="2020.00" arrivalPos="81.07" duration="489.00" routeLength="5071.59" timeLoss="57.17"/>
    </personinfo>
    <personinfo id="p42" depart="1260.00" type="DEFAULT_PEDTYPE" speedFactor="1.01">
        <ride waitingTime="484.00" vehicle="t8" depart="1744.00" arrival="2036.00" arrivalPos="185.60" duration="292.00" routeLength="3549.34" timeLoss="37.16"/>
    </personinfo>
    <personinfo id="p9" depart="270.00" type="DEFAULT_PEDTYPE" speedFactor="0.88">
        <ride waitingTime="64.00" vehicle="t2" depart="334.00" arrival="2060.00" arrivalPos="185.60" duration="1726.00" routeLength="20681.22" timeLoss="227.89"/>
    </personinfo>
    <personinfo id="p7" depart="210.00" type="DEFAULT_PEDTYPE" speedFactor="1.10">
        <ride waitingTime="93.00" vehicle="t13" depart="303.00" arrival="2061.00" arrivalPos="81.07" duration="1758.00" routeLength="20653.83" timeLoss="265.45"/>
    </personinfo>
    <personinfo id="p24" depart="720.00" type="DEFAULT_PEDTYPE" speedFactor="0.85">
        <ride waitingTime="281.00" vehicle="t8" depart="1001.00" arrival="2161.00" arrivalPos="85.60" duration="1160.00" routeLength="13971.33" timeLoss="154.80"/>
    </personinfo>
    <personinfo id="p36" depart="1080.00" type="DEFAULT_PEDTYPE" speedFactor="0.97">
        <ride waitingTime="167.00" vehicle="t12" depart="1247.00" arrival="2162.00" arrivalPos="183.62" duration="915.00" routeLength="10881.96" timeLoss="133.46"/>
    </personinfo>
    <personinfo id="p49" depart="1470.00" type="DEFAULT_PEDTYPE" speedFactor="1.03">
        <ride waitingTime="350.00" vehicle="t4" depart="1820.00" arrival="2208.00" arrivalPos="207.23" duration="388.00" routeLength="4505.14" timeLoss="52.18"/>
    </personinfo>
    <personinfo id="p46" depart="1380.00" type="DEFAULT_PEDTYPE" speedFactor="1.18">
        <ride waitingTime="510.00" vehicle="t7" depart="1890.00" arrival="2221.00" arrivalPos="117.97" duration="331.00" routeLength="3868.08" timeLoss="43.67"/>
    </personinfo>
    <personinfo id="p44" depart="1320.00" type="DEFAULT_PEDTYPE" speedFactor="0.93">
        <ride waitingTime="526.00" vehicle="t14" depart="1846.00" arrival="2259.00" arrivalPos="208.45" duration="413.00" routeLength="4977.95" timeLoss="56.69"/>
    </personinfo>
    <personinfo id="p40" depart="1200.00" type="DEFAULT_PEDTYPE" speedFactor="0.99">
        <ride waitingTime="310.00" vehicle="t5" depart="1510.00" arrival="2266.00" arrivalPos="94.67" duration="756.00" routeLength="8837.32" timeLoss="89.80"/>
    </personinfo>
    <personinfo id="p28" depart="840.00" type="DEFAULT_PEDTYPE" speedFactor="0.93">
        <ride waitingTime="291.00" vehicle="t1" depart="1131.00" arrival="2271.00" arrivalPos="176.55" duration="1140.00" routeLength="13225.58" timeLoss="133.37"/>
    </personinfo>
    <personinfo id="p8" depart="240.00" type="DEFAULT_PEDTYPE" speedFactor="1.03">
        <ride waitingTime="30.00" vehicle="t6" depart="270.00" arrival="2272.00" arrivalPos="85.60" duration="2002.00" routeLength="23113.20" timeLoss="225.98"/>
    </personinfo>
    <personinfo id="p18" depart="540.00" type="DEFAULT_PEDTYPE" speedFactor="1.03">
        <ride waitingTime="453.00" vehicle="t3" depart="993.00" arrival="2414.00" arrivalPos="196.80" duration="1421.00" routeLength="14931.65" timeLoss="172.13"/>
    </personinfo>
    <personinfo id="p11" depart="330.00" type="DEFAULT_PEDTYPE" speedFactor="0.91">
        <ride waitingTime="149.00" vehicle="t10" depart="479.00" arrival="2418.00" arrivalPos="122.50" duration="1939.00" routeLength="20217.10" timeLoss="217.84"/>
    </personinfo>
    <personinfo id="p15" depart="450.00" type="DEFAULT_PEDTYPE" speedFactor="0.98">
        <ride waitingTime="193.00" vehicle="t9" depart="643.00" arrival="2442.00" arrivalPos="187.47" duration="1799.00" routeLength="21125.18" timeLoss="254.29"/>
    </personinfo>
    <personinfo id="p45" depart="1350.00" type="DEFAULT_PEDTYPE" speedFactor="1.08">
        <ride waitingTime="541.00" vehicle="t1" depart="1891.00" arrival="2491.00" arrivalPos="81.07" duration="600.00" routeLength="6687.95" timeLoss="83.72"/>
    </personinfo>
    <personinfo id="p43" depart="1290.00" type="DEFAULT_PEDTYPE" speedFactor="1.11">
        <ride waitingTime="529.00" vehicle="t6" depart="1819.00" arrival="2545.00" arrivalPos="189.60" duration="726.00" routeLength="8120.45" timeLoss="89.40"/>
    </personinfo>
    <personinfo id="p19" depart="570.00" type="DEFAULT_PEDTYPE" speedFactor="1.07">
        <ride waitingTime="296.00" vehicle="t14" depart="866.00" arrival="2549.00" arrivalPos="85.60" duration="1683.00" routeLength="20083.01" timeLoss="249.84"/>
    </personinfo>
    <personinfo id="p48" depart="1440.00" type="DEFAULT_PEDTYPE" speedFactor="1.06">
        <ride waitingTime="667.00" vehicle="t3" depart="2107.00" arrival="2638.00" arrivalPos="85.60" duration="531.00" routeLength="5241.25" timeLoss="75.93"/>
    </personinfo>
    <personinfo id="p47" depart="1410.00" type="DEFAULT_PEDTYPE" speedFactor="1.12">
        <ride waitingTime="655.00" vehicle="t9" depart="2065.00" arrival="2716.00" arrivalPos="76.55" duration="651.00" routeLength="7602.25" timeLoss="87.63"/>
    </personinfo>
    <personinfo id="p41" depart="1230.00" type="DEFAULT_PEDTYPE" speedFactor="1.02">
        <ride waitingTime="1207.00" vehicle="t7" depart="2437.00" arrival="2882.00" arrivalPos="85.60" duration="445.00" routeLength="5198.42" timeLoss="62.03"/>
    </personinfo>
    <tripinfo id="t0" depart="0.00" departLane="-1470_0" departPos="5.10" departSpeed="0.00" departDelay="0.00" arrival="-1.00" arrivalLane="" arrivalPos="-1.00" arrivalSpeed="-1.00" duration="3000.00" routeLength="16723.59" waitingTime="7.00" waitingCount="3" stopTime="1572.00" timeLoss="203.70" rerouteNo="7" devices="tripinfo_t0 routing_t0 emissions_t0 taxi_t0 person_t0" vType="taxi" speedFactor="1.00" vaporized="">
        <emissions CO_abs="50852.628581" CO2_abs="4145161.407930" HC_abs="321.908498" PMx_abs="64.183042" NOx_abs="1610.770277" fuel_abs="1322119.112468" electricity_abs="0"/>
        <taxi customers="3" occupiedDistance="12693.20" occupiedTime="1092.00"/>
    </tripinfo>
    <tripinfo id="t1" depart="0.00" departLane="2343_0" departPos="5.10" departSpeed="0.00" departDelay="0.00" arrival="-1.00" arrivalLane="" arrivalPos="-1.00" arrivalSpeed="-1.00" duration="3000.00" routeLength="26567.53" waitingTime="19.00" waitingCount="6" stopTime="710.00" timeLoss="311.38" rerouteNo="9" devices="tripinfo_t1 routing_t1 emissions_t1 taxi_t1 person_t1" vType="taxi" speedFactor="0.98" vaporized="">
        <emissions CO_abs="77276.692917" CO2_abs="6388843.677868" HC_abs="490.708841" PMx_abs="96.149466" NOx_abs="2463.088321" fuel_abs="2037755.005733" electricity_abs="0"/>
        <taxi customers="4" occupiedDistance="24111.39" occupiedTime="2082.00"/>
    </tripinfo>
    <tripinfo id="t2" depart="0.00" departLane="-22350_0" departPos="5.10" departSpeed="0.00" departDelay="0.00" arrival="-1.00" arrivalLane="" arrivalPos="-1.00" arrivalSpeed="-1.00" duration="3000.00" routeLength="21259.08" waitingTime="10.00" waitingCount="3" stopTime="1246.00" timeLoss="246.25" rerouteNo="7" devices="tripinfo_t2 routing_t2 emissions_t2 taxi_t2 person_t2" vType="taxi" speedFactor="1.03" vaporized="">
        <emissions CO_abs="61051.523834" CO2_abs="5177578.683315" HC_abs="389.595507" PMx_abs="80.087240" NOx_abs="2003.450291" fuel_abs="1651412.255428" electricity_abs="0"/>
        <taxi customers="3" occupiedDistance="20681.22" occupiedTime="1699.00"/>
    </tripinfo>
    <tripinfo id="t3" depart="0.00" departLane="20598_0" departPos="5.10" departSpeed="0.00" departDelay="0.00" arrival="-1.00" arrivalLane="" arrivalPos="-1.00" arrivalSpeed="-1.00" duration="3000.00" routeLength="26950.42" waitingTime="13.00" waitingCount="5" stopTime="474.00" timeLoss="308.96" rerouteNo="9" devices="tripinfo_t3 routing_t3 emissions_t3 taxi_t3 person_t3" vType="taxi" speedFactor="0.89" vaporized="">
        <emissions CO_abs="81863.712238" CO2_abs="6403045.456650" HC_abs="516.667941" PMx_abs="93.168580" NOx_abs="2468.920609" fuel_abs="2042290.809393" electricity_abs="0"/>
        <taxi customers="4" occupiedDistance="21672.55" occupiedTime="2040.00"/>
    </tripinfo>
    <tripinfo id="t4" depart="0.00" departLane="-14522_0" departPos="5.10" departSpeed="0.00" departDelay="0.00" arrival="-1.00" arrivalLane="" arrivalPos="-1.00" arrivalSpeed="-1.00" duration="3000.00" routeLength="24584.11" waitingTime="13.00" waitingCount="4" stopTime="930.00" timeLoss="290.72" rerouteNo="9" devices="tripinfo_t4 routing_t4 emissions_t4 taxi_t4 person_t4" vType="taxi" speedFactor="1.02" vaporized="">
        <emissions CO_abs="73485.278691" CO2_abs="6048225.635726" HC_abs="465.630596" PMx_abs="93.961060" NOx_abs="2347.443789" fuel_abs="1929109.819289" electricity_abs="0"/>
        <taxi customers="4" occupiedDistance="23193.78" occupiedTime="1948.00"/>
    </tripinfo>
    <tripinfo id="t5" depart="0.00" departLane="6889_0" departPos="5.10" departSpeed="0.00" departDelay="0.00" arrival="-1.00" arrivalLane="" arrivalPos="-1.00" arrivalSpeed="-1.00" duration="3000.00" routeLength="26081.50" waitingTime="14.00" waitingCount="5" stopTime="781.00" timeLoss="301.03" rerouteNo="9" devices="tripinfo_t5 routing_t5 emissions_t5 taxi_t5 person_t5" vType="taxi" speedFactor="1.00" vaporized="">
        <emissions CO_abs="76667.148361" CO2_abs="6372165.075411" HC_abs="487.984840" PMx_abs="97.899103" NOx_abs="2469.278297" fuel_abs="2032432.651719" electricity_abs="0"/>
        <taxi customers="4" occupiedDistance="25179.02" occupiedTime="2140.00"/>
    </tripinfo>
    <tripinfo id="t6" depart="0.00" departLane="-29575_0" departPos="5.10" departSpeed="0.00" departDelay="0.00" arrival="-1.00" arrivalLane="" arrivalPos="-1.00" arrivalSpeed="-1.00" duration="3000.00" routeLength="26275.90" waitingTime="9.00" waitingCount="3" stopTime="731.00" timeLoss="273.17" rerouteNo="7" devices="tripinfo_t6 routing_t6 emissions_t6 taxi_t6 person_t6" vType="taxi" speedFactor="0.96" vaporized="">
        <emissions CO_abs="70775.204880" CO2_abs="6134532.758158" HC_abs="455.449098" PMx_abs="89.845648" NOx_abs="2349.444521" fuel_abs="1956642.014660" electricity_abs="0"/>
        <taxi customers="3" occupiedDistance="26081.10" occupiedTime="2248.00"/>
    </tripinfo>
    <tripinfo id="t7" depart="1.00" departLane="-22350_0" departPos="5.10" departSpeed="0.00" departDelay="1.00" arrival="-1.00" arrivalLane="" arrivalPos="-1.00" arrivalSpeed="-1.00" duration="2999.00" routeLength="26591.94" waitingTime="12.00" waitingCount="6" stopTime="765.00" timeLoss="316.90" rerouteNo="9" devices="tripinfo_t7 routing_t7 emissions_t7 taxi_t7 person_t7" vType="taxi" speedFactor="1.02" vaporized="">
        <emissions CO_abs="81129.086149" CO2_abs="6643806.461313" HC_abs="513.255694" PMx_abs="103.857038" NOx_abs="2583.824019" fuel_abs="2119072.515980" electricity_abs="0"/>
        <taxi customers="4" occupiedDistance="18223.60" occupiedTime="1538.00"/>
    </tripinfo>
    <tripinfo id="t8" depart="0.00" departLane="-25594_0" departPos="5.10" departSpeed="0.00" departDelay="0.00" arrival="-1.00" arrivalLane="" arrivalPos="-1.00" arrivalSpeed="-1.00" duration="3000.00" routeLength="17261.63" waitingTime="14.00" waitingCount="4" stopTime="1595.00" timeLoss="200.70" rerouteNo="7" devices="tripinfo_t8 routing_t8 emissions_t8 taxi_t8 person_t8" vType="taxi" speedFactor="1.05" vaporized="">
        <emissions CO_abs="50148.512236" CO2_abs="4191803.920209" HC_abs="318.619896" PMx_abs="65.728774" NOx_abs="1625.782979" fuel_abs="1336994.376347" electricity_abs="0"/>
        <taxi customers="3" occupiedDistance="16373.35" occupiedTime="1329.00"/>
    </tripinfo>
    <tripinfo id="t9" depart="0.00" departLane="-21971_0" departPos="5.10" departSpeed="0.00" departDelay="0.00" arrival="-1.00" arrivalLane="" arrivalPos="-1.00" arrivalSpeed="-1.00" duration="3000.00" routeLength="26547.10" waitingTime="15.00" waitingCount="5" stopTime="782.00" timeLoss="319.98" rerouteNo="9" devices="tripinfo_t9 routing_t9 emissions_t9 taxi_t9 person_t9" vType="taxi" speedFactor="1.02" vaporized="">
        <emissions CO_abs="80034.840942" CO2_abs="6617610.979799" HC_abs="508.220042" PMx_abs="104.072480" NOx_abs="2575.904221" fuel_abs="2110716.329270" electricity_abs="0"/>
        <taxi customers="4" occupiedDistance="24349.00" occupiedTime="2036.00"/>
    </tripinfo>
    <tripinfo id="t10" depart="0.00" departLane="10811_0" departPos="5.10" departSpeed="0.00" departDelay="0.00" arrival="-1.00" arrivalLane="" arrivalPos="-1.00" arrivalSpeed="-1.00" duration="3000.00" routeLength="21558.75" waitingTime="13.00" waitingCount="4" stopTime="948.00" timeLoss="246.99" rerouteNo="7" devices="tripinfo_t10 routing_t10 emissions_t10 taxi_t10 person_t10" vType="taxi" speedFactor="0.88" vaporized="">
        <emissions CO_abs="65681.948863" CO2_abs="5062585.378223" HC_abs="413.366262" PMx_abs="72.850727" NOx_abs="1949.271949" fuel_abs="1614744.256034" electricity_abs="0"/>
        <taxi customers="3" occupiedDistance="20835.86" occupiedTime="1980.00"/>
    </tripinfo>
    <tripinfo id="t11" depart="1.00" departLane="-29575_0" departPos="5.10" departSpeed="0.00" departDelay="1.00" arrival="-1.00" arrivalLane="" arrivalPos="-1.00" arrivalSpeed="-1.00" duration="2999.00" routeLength="13213.95" waitingTime="7.00" waitingCount="2" stopTime="1864.00" timeLoss="158.99" rerouteNo="5" devices="tripinfo_t11 routing_t11 emissions_t11 taxi_t11 person_t11" vType="taxi" speedFactor="1.00" vaporized="">
        <emissions CO_abs="39373.551207" CO2_abs="3253474.405093" HC_abs="249.296793" PMx_abs="49.227034" NOx_abs="1256.146981" fuel_abs="1037712.183995" electricity_abs="0"/>
        <taxi customers="2" occupiedDistance="8542.35" occupiedTime="743.00"/>
    </tripinfo>
    <tripinfo id="t12" depart="0.00" departLane="25184_0" departPos="5.10" departSpeed="0.00" departDelay="0.00" arrival="-1.00" arrivalLane="" arrivalPos="-1.00" arrivalSpeed="-1.00" duration="3000.00" routeLength="21553.33" waitingTime="10.00" waitingCount="3" stopTime="1231.00" timeLoss="263.65" rerouteNo="7" devices="tripinfo_t12 routing_t12 emissions_t12 taxi_t12 person_t12" vType="taxi" speedFactor="1.05" vaporized="">
        <emissions CO_abs="65417.790716" CO2_abs="5374243.863228" HC_abs="415.003236" PMx_abs="85.708906" NOx_abs="2098.698428" fuel_abs="1714137.799105" electricity_abs="0"/>
        <taxi customers="3" occupiedDistance="15908.99" occupiedTime="1311.00"/>
    </tripinfo>
    <tripinfo id="t13" depart="0.00" departLane="15729_0" departPos="5.10" departSpeed="0.00" departDelay="0.00" arrival="-1.00" arrivalLane="" arrivalPos="-1.00" arrivalSpeed="-1.00" duration="3000.00" routeLength="21714.82" waitingTime="14.00" waitingCount="6" stopTime="1185.00" timeLoss="281.50" rerouteNo="7" devices="tripinfo_t13 routing_t13 emissions_t13 taxi_t13 person_t13" vType="taxi" speedFactor="1.04" vaporized="">
        <emissions CO_abs="69228.622074" CO2_abs="5565076.296047" HC_abs="437.061729" PMx_abs="89.245476" NOx_abs="2178.525104" fuel_abs="1775004.952506" electricity_abs="0"/>
        <taxi customers="3" occupiedDistance="20653.83" occupiedTime="1731.00"/>
    </tripinfo>
    <tripinfo id="t14" depart="0.00" departLane="-13225_0" departPos="5.10" departSpeed="0.00" departDelay="0.00" arrival="-1.00" arrivalLane="" arrivalPos="-1.00" arrivalSpeed="-1.00" duration="3000.00" routeLength="23659.02" waitingTime="13.00" waitingCount="5" stopTime="1057.00" timeLoss="294.68" rerouteNo="7" devices="tripinfo_t14 routing_t14 emissions_t14 taxi_t14 person_t14" vType="taxi" speedFactor="1.05" vaporized="">
        <emissions CO_abs="74233.199752" CO2_abs="6009543.595008" HC_abs="467.877646" PMx_abs="96.435449" NOx_abs="2349.920504" fuel_abs="1916769.089514" electricity_abs="0"/>
        <taxi customers="3" occupiedDistance="20083.01" occupiedTime="1656.00"/>
    </tripinfo>
</tripinfos>
